% Model:              COMSOLexample.mph
% Version:            COMSOL 5.5.0.359
% Date:               May 28 2020, 10:44
% Dimension:          2
% Nodes:              80601
% Expressions:        1
% Description:        Displacement field, Z component
% Length unit:        m
% Grid
-10000                    -9950                    -9900                    -9850                    -9800                    -9750                    -9700                    -9650                    -9600                    -9550                    -9500                    -9450                    -9400                    -9350                    -9300                    -9250                    -9200                    -9150                    -9100                    -9050                    -9000                    -8950                    -8900                    -8850                    -8800                    -8750                    -8700                    -8650                    -8600                    -8550                    -8500                    -8450                    -8400                    -8350                    -8300                    -8250                    -8200                    -8150                    -8100                    -8050                    -8000                    -7950                    -7900                    -7850                    -7800                    -7750                    -7700                    -7650                    -7600                    -7550                    -7500                    -7450                    -7400                    -7350                    -7300                    -7250                    -7200                    -7150                    -7100                    -7050                    -7000                    -6950                    -6900                    -6850                    -6800                    -6750                    -6700                    -6650                    -6600                    -6550                    -6500                    -6450                    -6400                    -6350                    -6300                    -6250                    -6200                    -6150                    -6100                    -6050                    -6000                    -5950                    -5900                    -5850                    -5800                    -5750                    -5700                    -5650                    -5600                    -5550                    -5500                    -5450                    -5400                    -5350                    -5300                    -5250                    -5200                    -5150                    -5100                    -5050                    -5000                    -4950                    -4900                    -4850                    -4800                    -4750                    -4700                    -4650                    -4600                    -4550                    -4500                    -4450                    -4400                    -4350                    -4300                    -4250                    -4200                    -4150                    -4100                    -4050                    -4000                    -3950                    -3900                    -3850                    -3800                    -3750                    -3700                    -3650                    -3600                    -3550                    -3500                    -3450                    -3400                    -3350                    -3300                    -3250                    -3200                    -3150                    -3100                    -3050                    -3000                    -2950                    -2900                    -2850                    -2800                    -2750                    -2700                    -2650                    -2600                    -2550                    -2500                    -2450                    -2400                    -2350                    -2300                    -2250                    -2200                    -2150                    -2100                    -2050                    -2000                    -1950                    -1900                    -1850                    -1800                    -1750                    -1700                    -1650                    -1600                    -1550                    -1500                    -1450                    -1400                    -1350                    -1300                    -1250                    -1200                    -1150                    -1100                    -1050                    -1000                    -950                     -900                     -850                     -800                     -750                     -700                     -650                     -600                     -550                     -500                     -450                     -400                     -350                     -300                     -250                     -200                     -150                     -100                     -50                      0                        50                       100                      150                      200                      250                      300                      350                      400                      450                      500                      550                      600                      650                      700                      750                      800                      850                      900                      950                      1000                     1050                     1100                     1150                     1200                     1250                     1300                     1350                     1400                     1450                     1500                     1550                     1600                     1650                     1700                     1750                     1800                     1850                     1900                     1950                     2000                     2050                     2100                     2150                     2200                     2250                     2300                     2350                     2400                     2450                     2500                     2550                     2600                     2650                     2700                     2750                     2800                     2850                     2900                     2950                     3000                     3050                     3100                     3150                     3200                     3250                     3300                     3350                     3400                     3450                     3500                     3550                     3600                     3650                     3700                     3750                     3800                     3850                     3900                     3950                     4000                     4050                     4100                     4150                     4200                     4250                     4300                     4350                     4400                     4450                     4500                     4550                     4600                     4650                     4700                     4750                     4800                     4850                     4900                     4950                     5000                     5050                     5100                     5150                     5200                     5250                     5300                     5350                     5400                     5450                     5500                     5550                     5600                     5650                     5700                     5750                     5800                     5850                     5900                     5950                     6000                     6050                     6100                     6150                     6200                     6250                     6300                     6350                     6400                     6450                     6500                     6550                     6600                     6650                     6700                     6750                     6800                     6850                     6900                     6950                     7000                     7050                     7100                     7150                     7200                     7250                     7300                     7350                     7400                     7450                     7500                     7550                     7600                     7650                     7700                     7750                     7800                     7850                     7900                     7950                     8000                     8050                     8100                     8150                     8200                     8250                     8300                     8350                     8400                     8450                     8500                     8550                     8600                     8650                     8700                     8750                     8800                     8850                     8900                     8950                     9000                     9050                     9100                     9150                     9200                     9250                     9300                     9350                     9400                     9450                     9500                     9550                     9600                     9650                     9700                     9750                     9800                     9850                     9900                     9950                     10000                   
-10000                    -9950                    -9900                    -9850                    -9800                    -9750                    -9700                    -9650                    -9600                    -9550                    -9500                    -9450                    -9400                    -9350                    -9300                    -9250                    -9200                    -9150                    -9100                    -9050                    -9000                    -8950                    -8900                    -8850                    -8800                    -8750                    -8700                    -8650                    -8600                    -8550                    -8500                    -8450                    -8400                    -8350                    -8300                    -8250                    -8200                    -8150                    -8100                    -8050                    -8000                    -7950                    -7900                    -7850                    -7800                    -7750                    -7700                    -7650                    -7600                    -7550                    -7500                    -7450                    -7400                    -7350                    -7300                    -7250                    -7200                    -7150                    -7100                    -7050                    -7000                    -6950                    -6900                    -6850                    -6800                    -6750                    -6700                    -6650                    -6600                    -6550                    -6500                    -6450                    -6400                    -6350                    -6300                    -6250                    -6200                    -6150                    -6100                    -6050                    -6000                    -5950                    -5900                    -5850                    -5800                    -5750                    -5700                    -5650                    -5600                    -5550                    -5500                    -5450                    -5400                    -5350                    -5300                    -5250                    -5200                    -5150                    -5100                    -5050                    -5000                    -4950                    -4900                    -4850                    -4800                    -4750                    -4700                    -4650                    -4600                    -4550                    -4500                    -4450                    -4400                    -4350                    -4300                    -4250                    -4200                    -4150                    -4100                    -4050                    -4000                    -3950                    -3900                    -3850                    -3800                    -3750                    -3700                    -3650                    -3600                    -3550                    -3500                    -3450                    -3400                    -3350                    -3300                    -3250                    -3200                    -3150                    -3100                    -3050                    -3000                    -2950                    -2900                    -2850                    -2800                    -2750                    -2700                    -2650                    -2600                    -2550                    -2500                    -2450                    -2400                    -2350                    -2300                    -2250                    -2200                    -2150                    -2100                    -2050                    -2000                    -1950                    -1900                    -1850                    -1800                    -1750                    -1700                    -1650                    -1600                    -1550                    -1500                    -1450                    -1400                    -1350                    -1300                    -1250                    -1200                    -1150                    -1100                    -1050                    -1000                    -950                     -900                     -850                     -800                     -750                     -700                     -650                     -600                     -550                     -500                     -450                     -400                     -350                     -300                     -250                     -200                     -150                     -100                     -50                      0                       
% Data
% w (m)
0.004425247060840455      0.004488708634868553     0.004552021399456891     0.004615648658596554     0.004679590412287538     0.004743846660529847     0.004808417403323481     0.004873302640668438     0.004938502372564719     0.005004016599012323     0.005069845320011252     0.0051359885355615024    0.005202446245663078     0.005269821292362386     0.005343356011047976     0.005416707714063929     0.005489876401410247     0.005562862073086933     0.005635664729093982     0.005708284369431395     0.005780720994099173     0.0058528705625235       0.005924044567653632     0.005995406183839164     0.006066955411080095     0.006138692249376422     0.006210616698728146     0.006285030103558404     0.0063640970024871285    0.006442491651277328     0.006520214049928996     0.006597264198442136     0.006673642096816745     0.006749347745052825     0.006824381143150377     0.006898742291109401     0.006972431188929894     0.0070454478366118595    0.007117792234155295     0.007189464381560199     0.007260464278826576     0.007330791925954426     0.007400447322943744     0.007469430469794533     0.007537741366506792     0.007605380013080525     0.007672346409515726     0.0077386405558123985    0.007804262451970541     0.007869212097990156     0.007933489493871243     0.007997094639613797     0.008060027535217826     0.008122288180683323     0.008183876576010291     0.008244792721198732     0.008305036616248642     0.008364608261160021     0.008423507655932876     0.008481734800567197     0.00853928969506299      0.008596172339420255     0.008652382733638993     0.008707920877719199     0.008762786771660874     0.008816980415464023     0.008870501809128642     0.008923350952654731     0.008975527846042289     0.009027032489291322     0.00907786488240182      0.009128025025373793     0.009177512918207242     0.009228360292298517     0.009281494068642801     0.009334333461466114     0.009386878470768458     0.00943912909654982      0.009491085338810209     0.00954274719754962      0.009594114672768066     0.009628577640549885     0.009653893305731374     0.009677691224066455     0.009699971395555123     0.009720733820197386     0.009739978497993238     0.009756936202396099     0.009766220412950943     0.009772320161030948     0.009775235446636105     0.009774966269766424     0.009767558478954826     0.009754699257189156     0.00973975658640491      0.009722730466602086     0.009703620897780686     0.00968242787994071      0.009659151413082158     0.00963379149720503      0.009606348132309322     0.009576821318395037     0.00954521105546218      0.009511517343510746     0.009475740182540734     0.009437879572552148     0.009397935513544986     0.009355908005519243     0.009311797048474926     0.009265602642412033     0.009217324787330564     0.009166963483230518     0.009114518730111895     0.009059990527974699     0.009003378876818924     0.008944683776644568     0.008883905227451642     0.008821043229240138     0.008756097782010062     0.008689068885761401     0.008619956540494168     0.00854876074620836      0.008475481502903972     0.008452973222555478     0.008450925649990887     0.0084360167963296       0.008408246661571627     0.008367615245716959     0.008314122548765596     0.008247768570717545     0.00816855331157279      0.008076476771331357     0.007971538949993221     0.007853739847558388     0.007723079464026873     0.007579557799398664     0.007423174853673757     0.007253930626852158     0.007063217517140031     0.006848697682080284     0.006625687816323901     0.006394187919870891     0.006154197992721248     0.005905718034874972     0.005648748046332066     0.005383288027092526     0.005109337977156357     0.004826897896523555     0.00453596778519412      0.0042741354530143475    0.004034080403334318     0.0037928113130762465    0.00355032818224013      0.003306631010825963     0.003061719798833753     0.0028155945462634965    0.002568255253115192     0.002319701919388844     0.0020699345450844488    0.0018189531302020077    0.001566757674741521     0.0013133481787029873    0.001058724642086409     8.028870648917836E-4     5.458354471191129E-4     2.8756978876839646E-4    2.8090089839634308E-5    -2.3260364966717496E-4   -4.826275329377762E-4    -7.211315624478373E-4    -9.600095301419131E-4    -0.0011992614360200016   -0.0014388872800821031   -0.0016788870623282192   -0.001919260782758348    -0.00216000844137249     -0.002401130038170647    -0.002642625573152816    -0.0028844950463189994   -0.0031267384576691955   -0.0033941843360056805   -0.003665533571851102    -0.003937013670203802    -0.004208624631063784    -0.004480366454431046    -0.0047576907930098646   -0.005072178657168639    -0.005377040784648385    -0.005672277175449124    -0.0059578878295708316   -0.006233872747013523    -0.006500231927777191    -0.006756965371861843    -0.007004073079267471    -0.007241555049994084    -0.007469411284041673    -0.007687641781410235    -0.007896246542099783    -0.008095225566110312    -0.00828457885344182     -0.008464306404094303    -0.008634408218067772    -0.008794884295362217    -0.00894573463597764     -0.009086959239914044    -0.009218558107171426    -0.009340531237749791    -0.009452878631649132    -0.009555600288869452    -0.009648696209410753    -0.009732166393273034    -0.009806010840456295    -0.00987022955096054     -0.009924822524785756    -0.010054032294296082    -0.010160684674182583    -0.010258690343688353    -0.010353397583505963    -0.01044480639363541     -0.010532916774076695    -0.010617728724829821    -0.010699242245894788    -0.010777457337271586    -0.010852373998960234    -0.010923992230960716    -0.010993106824545323    -0.011060528375228453    -0.011124842143385407    -0.011186048129016185    -0.011244117649742497    -0.01128694147826511     -0.011328163381027042    -0.011367783358028311    -0.011405801409268907    -0.011442217534748828    -0.011477031734468074    -0.011510244008426646    -0.011541854356624543    -0.011571862779061776    -0.01159966432101057     -0.011607369001759568    -0.01161265272182661     -0.011615515481211668    -0.011615957279914749    -0.011613978117935863    -0.011609577995275004    -0.01160275691193217     -0.011593514867907368    -0.011581851863200581    -0.01156776789781183     -0.01155126297174111     -0.01153233708498841     -0.011510990237553736    -0.011487222429437094    -0.011461033660638477    -0.011432423931157882    -0.011402291046130377    -0.011370832031673       -0.011336842031899419    -0.011300321046809635    -0.011261269076403643    -0.011219686120681444    -0.011175572179643043    -0.01112892725328844     -0.011079751341617627    -0.011028044444630616    -0.010973806562327396    -0.01091703769470797     -0.01085773784177234     -0.010795907003520504    -0.010731545179952465    -0.010664652371068221    -0.010595228576867774    -0.010523273797351117    -0.010448788032518261    -0.010371771282369198    -0.01029222354690393     -0.010210144826122454    -0.010125535120024775    -0.010038394428610896    -0.009948722751880806    -0.009856520089834515    -0.009761786442472017    -0.009664521809793316    -0.009564726191798408    -0.009462399588487295    -0.009357541999859978    -0.009250153425916457    -0.009140233866656732    -0.0090277833220808      -0.008912801792188665    -0.008795289276980324    -0.008675245776455778    -0.008552671290615025    -0.008427565819458072    -0.00829992936298491     -0.008169761921195545    -0.008037063494089976    -0.0079018340816682      -0.007764073683930223    -0.007623782300876037    -0.007480959932505648    -0.007335606578819056    -0.007187722239816255    -0.007037306915497251    -0.006884360605862044    -0.006743673769722637    -0.006666127043212685    -0.006588459614896235    -0.006510671484773286    -0.0064327626528438405   -0.006354733119107903    -0.006276582883565458    -0.006198311946216522    -0.006119920307061084    -0.006041407966099155    -0.005962774923330725    -0.005884021178755798    -0.0057987066788067875   -0.005707622979104642    -0.005617736350055989    -0.005529046791660827    -0.005441554303919155    -0.0053552588868309775   -0.0052701605403962905   -0.005186259264615096    -0.0051035550594873925   -0.005022047925013181    -0.004941737861192462    -0.004862624868025234    -0.004784708945511497    -0.004707382660706005    -0.004628264918079323    -0.004550806829322975    -0.004475008394436961    -0.004400869613421285    -0.004328390486275941    -0.0042575710130009345   -0.0041884111935962635   -0.004120911028061927    -0.004055070516397924    -0.003990889658604256    -0.0039283684546809255   -0.00386750690462793     -0.003808305008445268    -0.0037507627661329404   -0.00369488017769095     -0.0036406572431192936   -0.0035880939624179714   -0.003537190335586987    -0.0034879463626263352   -0.003440362043536019    -0.0033944373783160384   -0.0033501723669663933   -0.003307567009487083    -0.003266621305878106    -0.0032273352561394677   -0.0031897088602711623   -0.0031537421182731918   -0.003119435030145557    -0.0030867875958882577   -0.003045096383579846    -0.002997753691691398    -0.0029512107339955294   -0.002912323074509063    -0.002875400970331472    -0.002838564813678595    -0.0028018146045504324   -0.0027651503429469834   -0.0027285720288682484   -0.0026959518822071787   -0.002664801284421087    -0.0026340622971103293   -0.0026037349202749044   -0.002573819153914811    -0.0025443149980300507   -0.0025152224526206247   -0.002486541517686529    -0.00245827219322777     -0.00243041447924434     -0.0024023494387579894   -0.002374435732787888    -0.002347046608143232    -0.0023201820648240216   -0.0022938421028302594   -0.0022680267221619416   -0.002242735922819072    -0.002217969704801648    -0.002193728068109669    -0.0021699346103853474   -0.0021463101749522252   -0.002123228700244745    -0.0021006901862629054   -0.0020786946330067072   -0.0020572420404761523   -0.002036332408671239    -0.0020159657375919677   -0.0019961420272383377   -0.0019768612776103487   -0.0019581234887080024   -0.0019399286605312981